+ 1 0 2 cbr 210 ------- 0 0.0 5.0 0 0
- 1 0 2 cbr 210 ------- 0 0.0 5.0 0 0
r 1.002336 0 2 cbr 210 ------- 0 0.0 5.0 0 0
+ 1.002336 2 4 cbr 210 ------- 0 0.0 5.0 0 0
- 1.002336 2 4 cbr 210 ------- 0 0.0 5.0 0 0
+ 1.00375 0 2 cbr 210 ------- 0 0.0 5.0 1 1
- 1.00375 0 2 cbr 210 ------- 0 0.0 5.0 1 1
r 1.004672 2 4 cbr 210 ------- 0 0.0 5.0 0 0
+ 1.004672 4 5 cbr 210 ------- 0 0.0 5.0 0 0
- 1.004672 4 5 cbr 210 ------- 0 0.0 5.0 0 0
r 1.006086 0 2 cbr 210 ------- 0 0.0 5.0 1 1
+ 1.006086 2 4 cbr 210 ------- 0 0.0 5.0 1 1
- 1.006086 2 4 cbr 210 ------- 0 0.0 5.0 1 1
r 1.007008 4 5 cbr 210 ------- 0 0.0 5.0 0 0
+ 1.0075 0 2 cbr 210 ------- 0 0.0 5.0 2 2
- 1.0075 0 2 cbr 210 ------- 0 0.0 5.0 2 2
r 1.008422 2 4 cbr 210 ------- 0 0.0 5.0 1 1
+ 1.008422 4 5 cbr 210 ------- 0 0.0 5.0 1 1
- 1.008422 4 5 cbr 210 ------- 0 0.0 5.0 1 1
r 1.009836 0 2 cbr 210 ------- 0 0.0 5.0 2 2
+ 1.009836 2 4 cbr 210 ------- 0 0.0 5.0 2 2
- 1.009836 2 4 cbr 210 ------- 0 0.0 5.0 2 2
r 1.010758 4 5 cbr 210 ------- 0 0.0 5.0 1 1
+ 1.01125 0 2 cbr 210 ------- 0 0.0 5.0 3 3
- 1.01125 0 2 cbr 210 ------- 0 0.0 5.0 3 3
r 1.012172 2 4 cbr 210 ------- 0 0.0 5.0 2 2
+ 1.012172 4 5 cbr 210 ------- 0 0.0 5.0 2 2
- 1.012172 4 5 cbr 210 ------- 0 0.0 5.0 2 2
r 1.013586 0 2 cbr 210 ------- 0 0.0 5.0 3 3
+ 1.013586 2 4 cbr 210 ------- 0 0.0 5.0 3 3
- 1.013586 2 4 cbr 210 ------- 0 0.0 5.0 3 3
r 1.014508 4 5 cbr 210 ------- 0 0.0 5.0 2 2
+ 1.015 0 2 cbr 210 ------- 0 0.0 5.0 4 4
- 1.015 0 2 cbr 210 ------- 0 0.0 5.0 4 4
r 1.015922 2 4 cbr 210 ------- 0 0.0 5.0 3 3
+ 1.015922 4 5 cbr 210 ------- 0 0.0 5.0 3 3
- 1.015922 4 5 cbr 210 ------- 0 0.0 5.0 3 3
r 1.017336 0 2 cbr 210 ------- 0 0.0 5.0 4 4
+ 1.017336 2 4 cbr 210 ------- 0 0.0 5.0 4 4
- 1.017336 2 4 cbr 210 ------- 0 0.0 5.0 4 4
r 1.018258 4 5 cbr 210 ------- 0 0.0 5.0 3 3
+ 1.01875 0 2 cbr 210 ------- 0 0.0 5.0 5 5
- 1.01875 0 2 cbr 210 ------- 0 0.0 5.0 5 5
r 1.019672 2 4 cbr 210 ------- 0 0.0 5.0 4 4
+ 1.019672 4 5 cbr 210 ------- 0 0.0 5.0 4 4
- 1.019672 4 5 cbr 210 ------- 0 0.0 5.0 4 4
r 1.021086 0 2 cbr 210 ------- 0 0.0 5.0 5 5
+ 1.021086 2 4 cbr 210 ------- 0 0.0 5.0 5 5
- 1.021086 2 4 cbr 210 ------- 0 0.0 5.0 5 5
r 1.022008 4 5 cbr 210 ------- 0 0.0 5.0 4 4
+ 1.0225 0 2 cbr 210 ------- 0 0.0 5.0 6 6
- 1.0225 0 2 cbr 210 ------- 0 0.0 5.0 6 6
r 1.023422 2 4 cbr 210 ------- 0 0.0 5.0 5 5
+ 1.023422 4 5 cbr 210 ------- 0 0.0 5.0 5 5
- 1.023422 4 5 cbr 210 ------- 0 0.0 5.0 5 5
r 1.024836 0 2 cbr 210 ------- 0 0.0 5.0 6 6
+ 1.024836 2 4 cbr 210 ------- 0 0.0 5.0 6 6
- 1.024836 2 4 cbr 210 ------- 0 0.0 5.0 6 6
r 1.025758 4 5 cbr 210 ------- 0 0.0 5.0 5 5
+ 1.02625 0 2 cbr 210 ------- 0 0.0 5.0 7 7
- 1.02625 0 2 cbr 210 ------- 0 0.0 5.0 7 7
r 1.027172 2 4 cbr 210 ------- 0 0.0 5.0 6 6
+ 1.027172 4 5 cbr 210 ------- 0 0.0 5.0 6 6
- 1.027172 4 5 cbr 210 ------- 0 0.0 5.0 6 6
r 1.028586 0 2 cbr 210 ------- 0 0.0 5.0 7 7
+ 1.028586 2 4 cbr 210 ------- 0 0.0 5.0 7 7
- 1.028586 2 4 cbr 210 ------- 0 0.0 5.0 7 7
r 1.029508 4 5 cbr 210 ------- 0 0.0 5.0 6 6
+ 1.03 0 2 cbr 210 ------- 0 0.0 5.0 8 8
- 1.03 0 2 cbr 210 ------- 0 0.0 5.0 8 8
r 1.030922 2 4 cbr 210 ------- 0 0.0 5.0 7 7
+ 1.030922 4 5 cbr 210 ------- 0 0.0 5.0 7 7
- 1.030922 4 5 cbr 210 ------- 0 0.0 5.0 7 7
r 1.032336 0 2 cbr 210 ------- 0 0.0 5.0 8 8
+ 1.032336 2 4 cbr 210 ------- 0 0.0 5.0 8 8
- 1.032336 2 4 cbr 210 ------- 0 0.0 5.0 8 8
r 1.033258 4 5 cbr 210 ------- 0 0.0 5.0 7 7
+ 1.03375 0 2 cbr 210 ------- 0 0.0 5.0 9 9
- 1.03375 0 2 cbr 210 ------- 0 0.0 5.0 9 9
r 1.034672 2 4 cbr 210 ------- 0 0.0 5.0 8 8
+ 1.034672 4 5 cbr 210 ------- 0 0.0 5.0 8 8
- 1.034672 4 5 cbr 210 ------- 0 0.0 5.0 8 8
r 1.036086 0 2 cbr 210 ------- 0 0.0 5.0 9 9
+ 1.036086 2 4 cbr 210 ------- 0 0.0 5.0 9 9
- 1.036086 2 4 cbr 210 ------- 0 0.0 5.0 9 9
r 1.037008 4 5 cbr 210 ------- 0 0.0 5.0 8 8
+ 1.0375 0 2 cbr 210 ------- 0 0.0 5.0 10 10
- 1.0375 0 2 cbr 210 ------- 0 0.0 5.0 10 10
r 1.038422 2 4 cbr 210 ------- 0 0.0 5.0 9 9
+ 1.038422 4 5 cbr 210 ------- 0 0.0 5.0 9 9
- 1.038422 4 5 cbr 210 ------- 0 0.0 5.0 9 9
r 1.039836 0 2 cbr 210 ------- 0 0.0 5.0 10 10
+ 1.039836 2 4 cbr 210 ------- 0 0.0 5.0 10 10
- 1.039836 2 4 cbr 210 ------- 0 0.0 5.0 10 10
r 1.040758 4 5 cbr 210 ------- 0 0.0 5.0 9 9
+ 1.04125 0 2 cbr 210 ------- 0 0.0 5.0 11 11
- 1.04125 0 2 cbr 210 ------- 0 0.0 5.0 11 11
r 1.042172 2 4 cbr 210 ------- 0 0.0 5.0 10 10
+ 1.042172 4 5 cbr 210 ------- 0 0.0 5.0 10 10
- 1.042172 4 5 cbr 210 ------- 0 0.0 5.0 10 10
r 1.043586 0 2 cbr 210 ------- 0 0.0 5.0 11 11
+ 1.043586 2 4 cbr 210 ------- 0 0.0 5.0 11 11
- 1.043586 2 4 cbr 210 ------- 0 0.0 5.0 11 11
r 1.044508 4 5 cbr 210 ------- 0 0.0 5.0 10 10
+ 1.045 0 2 cbr 210 ------- 0 0.0 5.0 12 12
- 1.045 0 2 cbr 210 ------- 0 0.0 5.0 12 12
r 1.045922 2 4 cbr 210 ------- 0 0.0 5.0 11 11
+ 1.045922 4 5 cbr 210 ------- 0 0.0 5.0 11 11
- 1.045922 4 5 cbr 210 ------- 0 0.0 5.0 11 11
r 1.047336 0 2 cbr 210 ------- 0 0.0 5.0 12 12
+ 1.047336 2 4 cbr 210 ------- 0 0.0 5.0 12 12
- 1.047336 2 4 cbr 210 ------- 0 0.0 5.0 12 12
r 1.048258 4 5 cbr 210 ------- 0 0.0 5.0 11 11
+ 1.04875 0 2 cbr 210 ------- 0 0.0 5.0 13 13
- 1.04875 0 2 cbr 210 ------- 0 0.0 5.0 13 13
r 1.049672 2 4 cbr 210 ------- 0 0.0 5.0 12 12
+ 1.049672 4 5 cbr 210 ------- 0 0.0 5.0 12 12
- 1.049672 4 5 cbr 210 ------- 0 0.0 5.0 12 12
r 1.051086 0 2 cbr 210 ------- 0 0.0 5.0 13 13
+ 1.051086 2 4 cbr 210 ------- 0 0.0 5.0 13 13
- 1.051086 2 4 cbr 210 ------- 0 0.0 5.0 13 13
r 1.052008 4 5 cbr 210 ------- 0 0.0 5.0 12 12
+ 1.0525 0 2 cbr 210 ------- 0 0.0 5.0 14 14
- 1.0525 0 2 cbr 210 ------- 0 0.0 5.0 14 14
r 1.053422 2 4 cbr 210 ------- 0 0.0 5.0 13 13
+ 1.053422 4 5 cbr 210 ------- 0 0.0 5.0 13 13
- 1.053422 4 5 cbr 210 ------- 0 0.0 5.0 13 13
r 1.054836 0 2 cbr 210 ------- 0 0.0 5.0 14 14
+ 1.054836 2 4 cbr 210 ------- 0 0.0 5.0 14 14
- 1.054836 2 4 cbr 210 ------- 0 0.0 5.0 14 14
r 1.055758 4 5 cbr 210 ------- 0 0.0 5.0 13 13
+ 1.05625 0 2 cbr 210 ------- 0 0.0 5.0 15 15
- 1.05625 0 2 cbr 210 ------- 0 0.0 5.0 15 15
r 1.057172 2 4 cbr 210 ------- 0 0.0 5.0 14 14
+ 1.057172 4 5 cbr 210 ------- 0 0.0 5.0 14 14
- 1.057172 4 5 cbr 210 ------- 0 0.0 5.0 14 14
r 1.058586 0 2 cbr 210 ------- 0 0.0 5.0 15 15
+ 1.058586 2 4 cbr 210 ------- 0 0.0 5.0 15 15
- 1.058586 2 4 cbr 210 ------- 0 0.0 5.0 15 15
r 1.059508 4 5 cbr 210 ------- 0 0.0 5.0 14 14
+ 1.06 0 2 cbr 210 ------- 0 0.0 5.0 16 16
- 1.06 0 2 cbr 210 ------- 0 0.0 5.0 16 16
r 1.060922 2 4 cbr 210 ------- 0 0.0 5.0 15 15
+ 1.060922 4 5 cbr 210 ------- 0 0.0 5.0 15 15
- 1.060922 4 5 cbr 210 ------- 0 0.0 5.0 15 15
r 1.062336 0 2 cbr 210 ------- 0 0.0 5.0 16 16
+ 1.062336 2 4 cbr 210 ------- 0 0.0 5.0 16 16
- 1.062336 2 4 cbr 210 ------- 0 0.0 5.0 16 16
r 1.063258 4 5 cbr 210 ------- 0 0.0 5.0 15 15
+ 1.06375 0 2 cbr 210 ------- 0 0.0 5.0 17 17
- 1.06375 0 2 cbr 210 ------- 0 0.0 5.0 17 17
r 1.064672 2 4 cbr 210 ------- 0 0.0 5.0 16 16
+ 1.064672 4 5 cbr 210 ------- 0 0.0 5.0 16 16
- 1.064672 4 5 cbr 210 ------- 0 0.0 5.0 16 16
r 1.066086 0 2 cbr 210 ------- 0 0.0 5.0 17 17
+ 1.066086 2 4 cbr 210 ------- 0 0.0 5.0 17 17
- 1.066086 2 4 cbr 210 ------- 0 0.0 5.0 17 17
r 1.067008 4 5 cbr 210 ------- 0 0.0 5.0 16 16
+ 1.0675 0 2 cbr 210 ------- 0 0.0 5.0 18 18
- 1.0675 0 2 cbr 210 ------- 0 0.0 5.0 18 18
r 1.068422 2 4 cbr 210 ------- 0 0.0 5.0 17 17
+ 1.068422 4 5 cbr 210 ------- 0 0.0 5.0 17 17
- 1.068422 4 5 cbr 210 ------- 0 0.0 5.0 17 17
r 1.069836 0 2 cbr 210 ------- 0 0.0 5.0 18 18
+ 1.069836 2 4 cbr 210 ------- 0 0.0 5.0 18 18
- 1.069836 2 4 cbr 210 ------- 0 0.0 5.0 18 18
r 1.070758 4 5 cbr 210 ------- 0 0.0 5.0 17 17
+ 1.07125 0 2 cbr 210 ------- 0 0.0 5.0 19 19
- 1.07125 0 2 cbr 210 ------- 0 0.0 5.0 19 19
r 1.072172 2 4 cbr 210 ------- 0 0.0 5.0 18 18
+ 1.072172 4 5 cbr 210 ------- 0 0.0 5.0 18 18
- 1.072172 4 5 cbr 210 ------- 0 0.0 5.0 18 18
r 1.073586 0 2 cbr 210 ------- 0 0.0 5.0 19 19
+ 1.073586 2 4 cbr 210 ------- 0 0.0 5.0 19 19
- 1.073586 2 4 cbr 210 ------- 0 0.0 5.0 19 19
r 1.074508 4 5 cbr 210 ------- 0 0.0 5.0 18 18
+ 1.075 0 2 cbr 210 ------- 0 0.0 5.0 20 20
- 1.075 0 2 cbr 210 ------- 0 0.0 5.0 20 20
r 1.075922 2 4 cbr 210 ------- 0 0.0 5.0 19 19
+ 1.075922 4 5 cbr 210 ------- 0 0.0 5.0 19 19
- 1.075922 4 5 cbr 210 ------- 0 0.0 5.0 19 19
r 1.077336 0 2 cbr 210 ------- 0 0.0 5.0 20 20
+ 1.077336 2 4 cbr 210 ------- 0 0.0 5.0 20 20
- 1.077336 2 4 cbr 210 ------- 0 0.0 5.0 20 20
r 1.078258 4 5 cbr 210 ------- 0 0.0 5.0 19 19
+ 1.07875 0 2 cbr 210 ------- 0 0.0 5.0 21 21
- 1.07875 0 2 cbr 210 ------- 0 0.0 5.0 21 21
r 1.079672 2 4 cbr 210 ------- 0 0.0 5.0 20 20
+ 1.079672 4 5 cbr 210 ------- 0 0.0 5.0 20 20
- 1.079672 4 5 cbr 210 ------- 0 0.0 5.0 20 20
r 1.081086 0 2 cbr 210 ------- 0 0.0 5.0 21 21
+ 1.081086 2 4 cbr 210 ------- 0 0.0 5.0 21 21
- 1.081086 2 4 cbr 210 ------- 0 0.0 5.0 21 21
r 1.082008 4 5 cbr 210 ------- 0 0.0 5.0 20 20
+ 1.0825 0 2 cbr 210 ------- 0 0.0 5.0 22 22
- 1.0825 0 2 cbr 210 ------- 0 0.0 5.0 22 22
r 1.083422 2 4 cbr 210 ------- 0 0.0 5.0 21 21
+ 1.083422 4 5 cbr 210 ------- 0 0.0 5.0 21 21
- 1.083422 4 5 cbr 210 ------- 0 0.0 5.0 21 21
r 1.084836 0 2 cbr 210 ------- 0 0.0 5.0 22 22
+ 1.084836 2 4 cbr 210 ------- 0 0.0 5.0 22 22
- 1.084836 2 4 cbr 210 ------- 0 0.0 5.0 22 22
r 1.085758 4 5 cbr 210 ------- 0 0.0 5.0 21 21
+ 1.08625 0 2 cbr 210 ------- 0 0.0 5.0 23 23
- 1.08625 0 2 cbr 210 ------- 0 0.0 5.0 23 23
r 1.087172 2 4 cbr 210 ------- 0 0.0 5.0 22 22
+ 1.087172 4 5 cbr 210 ------- 0 0.0 5.0 22 22
- 1.087172 4 5 cbr 210 ------- 0 0.0 5.0 22 22
r 1.088586 0 2 cbr 210 ------- 0 0.0 5.0 23 23
+ 1.088586 2 4 cbr 210 ------- 0 0.0 5.0 23 23
- 1.088586 2 4 cbr 210 ------- 0 0.0 5.0 23 23
r 1.089508 4 5 cbr 210 ------- 0 0.0 5.0 22 22
+ 1.09 0 2 cbr 210 ------- 0 0.0 5.0 24 24
- 1.09 0 2 cbr 210 ------- 0 0.0 5.0 24 24
r 1.090922 2 4 cbr 210 ------- 0 0.0 5.0 23 23
+ 1.090922 4 5 cbr 210 ------- 0 0.0 5.0 23 23
- 1.090922 4 5 cbr 210 ------- 0 0.0 5.0 23 23
r 1.092336 0 2 cbr 210 ------- 0 0.0 5.0 24 24
+ 1.092336 2 4 cbr 210 ------- 0 0.0 5.0 24 24
- 1.092336 2 4 cbr 210 ------- 0 0.0 5.0 24 24
r 1.093258 4 5 cbr 210 ------- 0 0.0 5.0 23 23
+ 1.09375 0 2 cbr 210 ------- 0 0.0 5.0 25 25
- 1.09375 0 2 cbr 210 ------- 0 0.0 5.0 25 25
r 1.094672 2 4 cbr 210 ------- 0 0.0 5.0 24 24
+ 1.094672 4 5 cbr 210 ------- 0 0.0 5.0 24 24
- 1.094672 4 5 cbr 210 ------- 0 0.0 5.0 24 24
r 1.096086 0 2 cbr 210 ------- 0 0.0 5.0 25 25
+ 1.096086 2 4 cbr 210 ------- 0 0.0 5.0 25 25
- 1.096086 2 4 cbr 210 ------- 0 0.0 5.0 25 25
r 1.097008 4 5 cbr 210 ------- 0 0.0 5.0 24 24
+ 1.0975 0 2 cbr 210 ------- 0 0.0 5.0 26 26
- 1.0975 0 2 cbr 210 ------- 0 0.0 5.0 26 26
r 1.098422 2 4 cbr 210 ------- 0 0.0 5.0 25 25
+ 1.098422 4 5 cbr 210 ------- 0 0.0 5.0 25 25
- 1.098422 4 5 cbr 210 ------- 0 0.0 5.0 25 25
r 1.099836 0 2 cbr 210 ------- 0 0.0 5.0 26 26
+ 1.099836 2 4 cbr 210 ------- 0 0.0 5.0 26 26
- 1.099836 2 4 cbr 210 ------- 0 0.0 5.0 26 26
r 1.100758 4 5 cbr 210 ------- 0 0.0 5.0 25 25
+ 1.10125 0 2 cbr 210 ------- 0 0.0 5.0 27 27
- 1.10125 0 2 cbr 210 ------- 0 0.0 5.0 27 27
r 1.102172 2 4 cbr 210 ------- 0 0.0 5.0 26 26
+ 1.102172 4 5 cbr 210 ------- 0 0.0 5.0 26 26
- 1.102172 4 5 cbr 210 ------- 0 0.0 5.0 26 26
r 1.103586 0 2 cbr 210 ------- 0 0.0 5.0 27 27
+ 1.103586 2 4 cbr 210 ------- 0 0.0 5.0 27 27
- 1.103586 2 4 cbr 210 ------- 0 0.0 5.0 27 27
r 1.104508 4 5 cbr 210 ------- 0 0.0 5.0 26 26
+ 1.105 0 2 cbr 210 ------- 0 0.0 5.0 28 28
- 1.105 0 2 cbr 210 ------- 0 0.0 5.0 28 28
r 1.105922 2 4 cbr 210 ------- 0 0.0 5.0 27 27
+ 1.105922 4 5 cbr 210 ------- 0 0.0 5.0 27 27
- 1.105922 4 5 cbr 210 ------- 0 0.0 5.0 27 27
r 1.107336 0 2 cbr 210 ------- 0 0.0 5.0 28 28
+ 1.107336 2 4 cbr 210 ------- 0 0.0 5.0 28 28
- 1.107336 2 4 cbr 210 ------- 0 0.0 5.0 28 28
r 1.108258 4 5 cbr 210 ------- 0 0.0 5.0 27 27
+ 1.10875 0 2 cbr 210 ------- 0 0.0 5.0 29 29
- 1.10875 0 2 cbr 210 ------- 0 0.0 5.0 29 29
r 1.109672 2 4 cbr 210 ------- 0 0.0 5.0 28 28
+ 1.109672 4 5 cbr 210 ------- 0 0.0 5.0 28 28
- 1.109672 4 5 cbr 210 ------- 0 0.0 5.0 28 28
r 1.111086 0 2 cbr 210 ------- 0 0.0 5.0 29 29
+ 1.111086 2 4 cbr 210 ------- 0 0.0 5.0 29 29
- 1.111086 2 4 cbr 210 ------- 0 0.0 5.0 29 29
r 1.112008 4 5 cbr 210 ------- 0 0.0 5.0 28 28
+ 1.1125 0 2 cbr 210 ------- 0 0.0 5.0 30 30
- 1.1125 0 2 cbr 210 ------- 0 0.0 5.0 30 30
r 1.113422 2 4 cbr 210 ------- 0 0.0 5.0 29 29
+ 1.113422 4 5 cbr 210 ------- 0 0.0 5.0 29 29
- 1.113422 4 5 cbr 210 ------- 0 0.0 5.0 29 29
r 1.114836 0 2 cbr 210 ------- 0 0.0 5.0 30 30
+ 1.114836 2 4 cbr 210 ------- 0 0.0 5.0 30 30
- 1.114836 2 4 cbr 210 ------- 0 0.0 5.0 30 30
r 1.115758 4 5 cbr 210 ------- 0 0.0 5.0 29 29
+ 1.11625 0 2 cbr 210 ------- 0 0.0 5.0 31 31
- 1.11625 0 2 cbr 210 ------- 0 0.0 5.0 31 31
r 1.117172 2 4 cbr 210 ------- 0 0.0 5.0 30 30
+ 1.117172 4 5 cbr 210 ------- 0 0.0 5.0 30 30
- 1.117172 4 5 cbr 210 ------- 0 0.0 5.0 30 30
r 1.118586 0 2 cbr 210 ------- 0 0.0 5.0 31 31
+ 1.118586 2 4 cbr 210 ------- 0 0.0 5.0 31 31
- 1.118586 2 4 cbr 210 ------- 0 0.0 5.0 31 31
r 1.119508 4 5 cbr 210 ------- 0 0.0 5.0 30 30
+ 1.12 0 2 cbr 210 ------- 0 0.0 5.0 32 32
- 1.12 0 2 cbr 210 ------- 0 0.0 5.0 32 32
r 1.120922 2 4 cbr 210 ------- 0 0.0 5.0 31 31
+ 1.120922 4 5 cbr 210 ------- 0 0.0 5.0 31 31
- 1.120922 4 5 cbr 210 ------- 0 0.0 5.0 31 31
r 1.122336 0 2 cbr 210 ------- 0 0.0 5.0 32 32
+ 1.122336 2 4 cbr 210 ------- 0 0.0 5.0 32 32
- 1.122336 2 4 cbr 210 ------- 0 0.0 5.0 32 32
r 1.123258 4 5 cbr 210 ------- 0 0.0 5.0 31 31
+ 1.12375 0 2 cbr 210 ------- 0 0.0 5.0 33 33
- 1.12375 0 2 cbr 210 ------- 0 0.0 5.0 33 33
r 1.124672 2 4 cbr 210 ------- 0 0.0 5.0 32 32
+ 1.124672 4 5 cbr 210 ------- 0 0.0 5.0 32 32
- 1.124672 4 5 cbr 210 ------- 0 0.0 5.0 32 32
r 1.126086 0 2 cbr 210 ------- 0 0.0 5.0 33 33
+ 1.126086 2 4 cbr 210 ------- 0 0.0 5.0 33 33
- 1.126086 2 4 cbr 210 ------- 0 0.0 5.0 33 33
r 1.127008 4 5 cbr 210 ------- 0 0.0 5.0 32 32
+ 1.1275 0 2 cbr 210 ------- 0 0.0 5.0 34 34
- 1.1275 0 2 cbr 210 ------- 0 0.0 5.0 34 34
r 1.128422 2 4 cbr 210 ------- 0 0.0 5.0 33 33
+ 1.128422 4 5 cbr 210 ------- 0 0.0 5.0 33 33
- 1.128422 4 5 cbr 210 ------- 0 0.0 5.0 33 33
r 1.129836 0 2 cbr 210 ------- 0 0.0 5.0 34 34
+ 1.129836 2 4 cbr 210 ------- 0 0.0 5.0 34 34
- 1.129836 2 4 cbr 210 ------- 0 0.0 5.0 34 34
r 1.130758 4 5 cbr 210 ------- 0 0.0 5.0 33 33
+ 1.13125 0 2 cbr 210 ------- 0 0.0 5.0 35 35
- 1.13125 0 2 cbr 210 ------- 0 0.0 5.0 35 35
r 1.132172 2 4 cbr 210 ------- 0 0.0 5.0 34 34
+ 1.132172 4 5 cbr 210 ------- 0 0.0 5.0 34 34
- 1.132172 4 5 cbr 210 ------- 0 0.0 5.0 34 34
r 1.133586 0 2 cbr 210 ------- 0 0.0 5.0 35 35
+ 1.133586 2 4 cbr 210 ------- 0 0.0 5.0 35 35
- 1.133586 2 4 cbr 210 ------- 0 0.0 5.0 35 35
r 1.134508 4 5 cbr 210 ------- 0 0.0 5.0 34 34
+ 1.135 0 2 cbr 210 ------- 0 0.0 5.0 36 36
- 1.135 0 2 cbr 210 ------- 0 0.0 5.0 36 36
r 1.135922 2 4 cbr 210 ------- 0 0.0 5.0 35 35
+ 1.135922 4 5 cbr 210 ------- 0 0.0 5.0 35 35
- 1.135922 4 5 cbr 210 ------- 0 0.0 5.0 35 35
r 1.137336 0 2 cbr 210 ------- 0 0.0 5.0 36 36
+ 1.137336 2 4 cbr 210 ------- 0 0.0 5.0 36 36
- 1.137336 2 4 cbr 210 ------- 0 0.0 5.0 36 36
r 1.138258 4 5 cbr 210 ------- 0 0.0 5.0 35 35
+ 1.13875 0 2 cbr 210 ------- 0 0.0 5.0 37 37
- 1.13875 0 2 cbr 210 ------- 0 0.0 5.0 37 37
r 1.139672 2 4 cbr 210 ------- 0 0.0 5.0 36 36
+ 1.139672 4 5 cbr 210 ------- 0 0.0 5.0 36 36
- 1.139672 4 5 cbr 210 ------- 0 0.0 5.0 36 36
r 1.141086 0 2 cbr 210 ------- 0 0.0 5.0 37 37
+ 1.141086 2 4 cbr 210 ------- 0 0.0 5.0 37 37
- 1.141086 2 4 cbr 210 ------- 0 0.0 5.0 37 37
r 1.142008 4 5 cbr 210 ------- 0 0.0 5.0 36 36
+ 1.1425 0 2 cbr 210 ------- 0 0.0 5.0 38 38
- 1.1425 0 2 cbr 210 ------- 0 0.0 5.0 38 38
r 1.143422 2 4 cbr 210 ------- 0 0.0 5.0 37 37
+ 1.143422 4 5 cbr 210 ------- 0 0.0 5.0 37 37
- 1.143422 4 5 cbr 210 ------- 0 0.0 5.0 37 37
r 1.144836 0 2 cbr 210 ------- 0 0.0 5.0 38 38
+ 1.144836 2 4 cbr 210 ------- 0 0.0 5.0 38 38
- 1.144836 2 4 cbr 210 ------- 0 0.0 5.0 38 38
r 1.145758 4 5 cbr 210 ------- 0 0.0 5.0 37 37
+ 1.14625 0 2 cbr 210 ------- 0 0.0 5.0 39 39
- 1.14625 0 2 cbr 210 ------- 0 0.0 5.0 39 39
r 1.147172 2 4 cbr 210 ------- 0 0.0 5.0 38 38
+ 1.147172 4 5 cbr 210 ------- 0 0.0 5.0 38 38
- 1.147172 4 5 cbr 210 ------- 0 0.0 5.0 38 38
r 1.148586 0 2 cbr 210 ------- 0 0.0 5.0 39 39
+ 1.148586 2 4 cbr 210 ------- 0 0.0 5.0 39 39
- 1.148586 2 4 cbr 210 ------- 0 0.0 5.0 39 39
r 1.149508 4 5 cbr 210 ------- 0 0.0 5.0 38 38
+ 1.15 0 2 cbr 210 ------- 0 0.0 5.0 40 40
- 1.15 0 2 cbr 210 ------- 0 0.0 5.0 40 40
r 1.150922 2 4 cbr 210 ------- 0 0.0 5.0 39 39
+ 1.150922 4 5 cbr 210 ------- 0 0.0 5.0 39 39
- 1.150922 4 5 cbr 210 ------- 0 0.0 5.0 39 39
r 1.152336 0 2 cbr 210 ------- 0 0.0 5.0 40 40
+ 1.152336 2 4 cbr 210 ------- 0 0.0 5.0 40 40
- 1.152336 2 4 cbr 210 ------- 0 0.0 5.0 40 40
r 1.153258 4 5 cbr 210 ------- 0 0.0 5.0 39 39
+ 1.15375 0 2 cbr 210 ------- 0 0.0 5.0 41 41
- 1.15375 0 2 cbr 210 ------- 0 0.0 5.0 41 41
r 1.154672 2 4 cbr 210 ------- 0 0.0 5.0 40 40
+ 1.154672 4 5 cbr 210 ------- 0 0.0 5.0 40 40
- 1.154672 4 5 cbr 210 ------- 0 0.0 5.0 40 40
r 1.156086 0 2 cbr 210 ------- 0 0.0 5.0 41 41
+ 1.156086 2 4 cbr 210 ------- 0 0.0 5.0 41 41
- 1.156086 2 4 cbr 210 ------- 0 0.0 5.0 41 41
r 1.157008 4 5 cbr 210 ------- 0 0.0 5.0 40 40
+ 1.1575 0 2 cbr 210 ------- 0 0.0 5.0 42 42
- 1.1575 0 2 cbr 210 ------- 0 0.0 5.0 42 42
r 1.158422 2 4 cbr 210 ------- 0 0.0 5.0 41 41
+ 1.158422 4 5 cbr 210 ------- 0 0.0 5.0 41 41
- 1.158422 4 5 cbr 210 ------- 0 0.0 5.0 41 41
r 1.159836 0 2 cbr 210 ------- 0 0.0 5.0 42 42
+ 1.159836 2 4 cbr 210 ------- 0 0.0 5.0 42 42
- 1.159836 2 4 cbr 210 ------- 0 0.0 5.0 42 42
r 1.160758 4 5 cbr 210 ------- 0 0.0 5.0 41 41
+ 1.16125 0 2 cbr 210 ------- 0 0.0 5.0 43 43
- 1.16125 0 2 cbr 210 ------- 0 0.0 5.0 43 43
r 1.162172 2 4 cbr 210 ------- 0 0.0 5.0 42 42
+ 1.162172 4 5 cbr 210 ------- 0 0.0 5.0 42 42
- 1.162172 4 5 cbr 210 ------- 0 0.0 5.0 42 42
r 1.163586 0 2 cbr 210 ------- 0 0.0 5.0 43 43
+ 1.163586 2 4 cbr 210 ------- 0 0.0 5.0 43 43
- 1.163586 2 4 cbr 210 ------- 0 0.0 5.0 43 43
r 1.164508 4 5 cbr 210 ------- 0 0.0 5.0 42 42
+ 1.165 0 2 cbr 210 ------- 0 0.0 5.0 44 44
- 1.165 0 2 cbr 210 ------- 0 0.0 5.0 44 44
r 1.165922 2 4 cbr 210 ------- 0 0.0 5.0 43 43
+ 1.165922 4 5 cbr 210 ------- 0 0.0 5.0 43 43
- 1.165922 4 5 cbr 210 ------- 0 0.0 5.0 43 43
r 1.167336 0 2 cbr 210 ------- 0 0.0 5.0 44 44
+ 1.167336 2 4 cbr 210 ------- 0 0.0 5.0 44 44
- 1.167336 2 4 cbr 210 ------- 0 0.0 5.0 44 44
r 1.168258 4 5 cbr 210 ------- 0 0.0 5.0 43 43
+ 1.16875 0 2 cbr 210 ------- 0 0.0 5.0 45 45
- 1.16875 0 2 cbr 210 ------- 0 0.0 5.0 45 45
r 1.169672 2 4 cbr 210 ------- 0 0.0 5.0 44 44
+ 1.169672 4 5 cbr 210 ------- 0 0.0 5.0 44 44
- 1.169672 4 5 cbr 210 ------- 0 0.0 5.0 44 44
r 1.171086 0 2 cbr 210 ------- 0 0.0 5.0 45 45
+ 1.171086 2 4 cbr 210 ------- 0 0.0 5.0 45 45
- 1.171086 2 4 cbr 210 ------- 0 0.0 5.0 45 45
r 1.172008 4 5 cbr 210 ------- 0 0.0 5.0 44 44
+ 1.1725 0 2 cbr 210 ------- 0 0.0 5.0 46 46
- 1.1725 0 2 cbr 210 ------- 0 0.0 5.0 46 46
r 1.173422 2 4 cbr 210 ------- 0 0.0 5.0 45 45
+ 1.173422 4 5 cbr 210 ------- 0 0.0 5.0 45 45
- 1.173422 4 5 cbr 210 ------- 0 0.0 5.0 45 45
r 1.174836 0 2 cbr 210 ------- 0 0.0 5.0 46 46
+ 1.174836 2 4 cbr 210 ------- 0 0.0 5.0 46 46
- 1.174836 2 4 cbr 210 ------- 0 0.0 5.0 46 46
r 1.175758 4 5 cbr 210 ------- 0 0.0 5.0 45 45
+ 1.17625 0 2 cbr 210 ------- 0 0.0 5.0 47 47
- 1.17625 0 2 cbr 210 ------- 0 0.0 5.0 47 47
r 1.177172 2 4 cbr 210 ------- 0 0.0 5.0 46 46
+ 1.177172 4 5 cbr 210 ------- 0 0.0 5.0 46 46
- 1.177172 4 5 cbr 210 ------- 0 0.0 5.0 46 46
r 1.178586 0 2 cbr 210 ------- 0 0.0 5.0 47 47
+ 1.178586 2 4 cbr 210 ------- 0 0.0 5.0 47 47
- 1.178586 2 4 cbr 210 ------- 0 0.0 5.0 47 47
r 1.179508 4 5 cbr 210 ------- 0 0.0 5.0 46 46
+ 1.18 0 2 cbr 210 ------- 0 0.0 5.0 48 48
- 1.18 0 2 cbr 210 ------- 0 0.0 5.0 48 48
r 1.180922 2 4 cbr 210 ------- 0 0.0 5.0 47 47
+ 1.180922 4 5 cbr 210 ------- 0 0.0 5.0 47 47
- 1.180922 4 5 cbr 210 ------- 0 0.0 5.0 47 47
r 1.182336 0 2 cbr 210 ------- 0 0.0 5.0 48 48
+ 1.182336 2 4 cbr 210 ------- 0 0.0 5.0 48 48
- 1.182336 2 4 cbr 210 ------- 0 0.0 5.0 48 48
r 1.183258 4 5 cbr 210 ------- 0 0.0 5.0 47 47
+ 1.18375 0 2 cbr 210 ------- 0 0.0 5.0 49 49
- 1.18375 0 2 cbr 210 ------- 0 0.0 5.0 49 49
r 1.184672 2 4 cbr 210 ------- 0 0.0 5.0 48 48
+ 1.184672 4 5 cbr 210 ------- 0 0.0 5.0 48 48
- 1.184672 4 5 cbr 210 ------- 0 0.0 5.0 48 48
r 1.186086 0 2 cbr 210 ------- 0 0.0 5.0 49 49
+ 1.186086 2 4 cbr 210 ------- 0 0.0 5.0 49 49
- 1.186086 2 4 cbr 210 ------- 0 0.0 5.0 49 49
r 1.187008 4 5 cbr 210 ------- 0 0.0 5.0 48 48
+ 1.1875 0 2 cbr 210 ------- 0 0.0 5.0 50 50
- 1.1875 0 2 cbr 210 ------- 0 0.0 5.0 50 50
r 1.188422 2 4 cbr 210 ------- 0 0.0 5.0 49 49
+ 1.188422 4 5 cbr 210 ------- 0 0.0 5.0 49 49
- 1.188422 4 5 cbr 210 ------- 0 0.0 5.0 49 49
r 1.189836 0 2 cbr 210 ------- 0 0.0 5.0 50 50
+ 1.189836 2 4 cbr 210 ------- 0 0.0 5.0 50 50
- 1.189836 2 4 cbr 210 ------- 0 0.0 5.0 50 50
r 1.190758 4 5 cbr 210 ------- 0 0.0 5.0 49 49
+ 1.19125 0 2 cbr 210 ------- 0 0.0 5.0 51 51
- 1.19125 0 2 cbr 210 ------- 0 0.0 5.0 51 51
r 1.192172 2 4 cbr 210 ------- 0 0.0 5.0 50 50
+ 1.192172 4 5 cbr 210 ------- 0 0.0 5.0 50 50
- 1.192172 4 5 cbr 210 ------- 0 0.0 5.0 50 50
r 1.193586 0 2 cbr 210 ------- 0 0.0 5.0 51 51
+ 1.193586 2 4 cbr 210 ------- 0 0.0 5.0 51 51
- 1.193586 2 4 cbr 210 ------- 0 0.0 5.0 51 51
r 1.194508 4 5 cbr 210 ------- 0 0.0 5.0 50 50
+ 1.195 0 2 cbr 210 ------- 0 0.0 5.0 52 52
- 1.195 0 2 cbr 210 ------- 0 0.0 5.0 52 52
r 1.195922 2 4 cbr 210 ------- 0 0.0 5.0 51 51
+ 1.195922 4 5 cbr 210 ------- 0 0.0 5.0 51 51
- 1.195922 4 5 cbr 210 ------- 0 0.0 5.0 51 51
r 1.197336 0 2 cbr 210 ------- 0 0.0 5.0 52 52
+ 1.197336 2 4 cbr 210 ------- 0 0.0 5.0 52 52
- 1.197336 2 4 cbr 210 ------- 0 0.0 5.0 52 52
r 1.198258 4 5 cbr 210 ------- 0 0.0 5.0 51 51
+ 1.19875 0 2 cbr 210 ------- 0 0.0 5.0 53 53
- 1.19875 0 2 cbr 210 ------- 0 0.0 5.0 53 53
r 1.199672 2 4 cbr 210 ------- 0 0.0 5.0 52 52
+ 1.199672 4 5 cbr 210 ------- 0 0.0 5.0 52 52
- 1.199672 4 5 cbr 210 ------- 0 0.0 5.0 52 52
r 1.201086 0 2 cbr 210 ------- 0 0.0 5.0 53 53
+ 1.201086 2 4 cbr 210 ------- 0 0.0 5.0 53 53
- 1.201086 2 4 cbr 210 ------- 0 0.0 5.0 53 53
r 1.202008 4 5 cbr 210 ------- 0 0.0 5.0 52 52
+ 1.2025 0 2 cbr 210 ------- 0 0.0 5.0 54 54
- 1.2025 0 2 cbr 210 ------- 0 0.0 5.0 54 54
r 1.203422 2 4 cbr 210 ------- 0 0.0 5.0 53 53
+ 1.203422 4 5 cbr 210 ------- 0 0.0 5.0 53 53
- 1.203422 4 5 cbr 210 ------- 0 0.0 5.0 53 53
r 1.204836 0 2 cbr 210 ------- 0 0.0 5.0 54 54
+ 1.204836 2 4 cbr 210 ------- 0 0.0 5.0 54 54
- 1.204836 2 4 cbr 210 ------- 0 0.0 5.0 54 54
r 1.205758 4 5 cbr 210 ------- 0 0.0 5.0 53 53
+ 1.20625 0 2 cbr 210 ------- 0 0.0 5.0 55 55
- 1.20625 0 2 cbr 210 ------- 0 0.0 5.0 55 55
r 1.207172 2 4 cbr 210 ------- 0 0.0 5.0 54 54
+ 1.207172 4 5 cbr 210 ------- 0 0.0 5.0 54 54
- 1.207172 4 5 cbr 210 ------- 0 0.0 5.0 54 54
r 1.208586 0 2 cbr 210 ------- 0 0.0 5.0 55 55
+ 1.208586 2 4 cbr 210 ------- 0 0.0 5.0 55 55
- 1.208586 2 4 cbr 210 ------- 0 0.0 5.0 55 55
r 1.209508 4 5 cbr 210 ------- 0 0.0 5.0 54 54
+ 1.21 0 2 cbr 210 ------- 0 0.0 5.0 56 56
- 1.21 0 2 cbr 210 ------- 0 0.0 5.0 56 56
r 1.210922 2 4 cbr 210 ------- 0 0.0 5.0 55 55
+ 1.210922 4 5 cbr 210 ------- 0 0.0 5.0 55 55
- 1.210922 4 5 cbr 210 ------- 0 0.0 5.0 55 55
r 1.212336 0 2 cbr 210 ------- 0 0.0 5.0 56 56
+ 1.212336 2 4 cbr 210 ------- 0 0.0 5.0 56 56
- 1.212336 2 4 cbr 210 ------- 0 0.0 5.0 56 56
r 1.213258 4 5 cbr 210 ------- 0 0.0 5.0 55 55
+ 1.21375 0 2 cbr 210 ------- 0 0.0 5.0 57 57
- 1.21375 0 2 cbr 210 ------- 0 0.0 5.0 57 57
r 1.214672 2 4 cbr 210 ------- 0 0.0 5.0 56 56
+ 1.214672 4 5 cbr 210 ------- 0 0.0 5.0 56 56
- 1.214672 4 5 cbr 210 ------- 0 0.0 5.0 56 56
r 1.216086 0 2 cbr 210 ------- 0 0.0 5.0 57 57
+ 1.216086 2 4 cbr 210 ------- 0 0.0 5.0 57 57
- 1.216086 2 4 cbr 210 ------- 0 0.0 5.0 57 57
r 1.217008 4 5 cbr 210 ------- 0 0.0 5.0 56 56
+ 1.2175 0 2 cbr 210 ------- 0 0.0 5.0 58 58
- 1.2175 0 2 cbr 210 ------- 0 0.0 5.0 58 58
r 1.218422 2 4 cbr 210 ------- 0 0.0 5.0 57 57
+ 1.218422 4 5 cbr 210 ------- 0 0.0 5.0 57 57
- 1.218422 4 5 cbr 210 ------- 0 0.0 5.0 57 57
r 1.219836 0 2 cbr 210 ------- 0 0.0 5.0 58 58
+ 1.219836 2 4 cbr 210 ------- 0 0.0 5.0 58 58
- 1.219836 2 4 cbr 210 ------- 0 0.0 5.0 58 58
r 1.220758 4 5 cbr 210 ------- 0 0.0 5.0 57 57
+ 1.22125 0 2 cbr 210 ------- 0 0.0 5.0 59 59
- 1.22125 0 2 cbr 210 ------- 0 0.0 5.0 59 59
r 1.222172 2 4 cbr 210 ------- 0 0.0 5.0 58 58
+ 1.222172 4 5 cbr 210 ------- 0 0.0 5.0 58 58
- 1.222172 4 5 cbr 210 ------- 0 0.0 5.0 58 58
r 1.223586 0 2 cbr 210 ------- 0 0.0 5.0 59 59
+ 1.223586 2 4 cbr 210 ------- 0 0.0 5.0 59 59
- 1.223586 2 4 cbr 210 ------- 0 0.0 5.0 59 59
r 1.224508 4 5 cbr 210 ------- 0 0.0 5.0 58 58
+ 1.225 0 2 cbr 210 ------- 0 0.0 5.0 60 60
- 1.225 0 2 cbr 210 ------- 0 0.0 5.0 60 60
r 1.225922 2 4 cbr 210 ------- 0 0.0 5.0 59 59
+ 1.225922 4 5 cbr 210 ------- 0 0.0 5.0 59 59
- 1.225922 4 5 cbr 210 ------- 0 0.0 5.0 59 59
r 1.227336 0 2 cbr 210 ------- 0 0.0 5.0 60 60
+ 1.227336 2 4 cbr 210 ------- 0 0.0 5.0 60 60
- 1.227336 2 4 cbr 210 ------- 0 0.0 5.0 60 60
r 1.228258 4 5 cbr 210 ------- 0 0.0 5.0 59 59
+ 1.22875 0 2 cbr 210 ------- 0 0.0 5.0 61 61
- 1.22875 0 2 cbr 210 ------- 0 0.0 5.0 61 61
r 1.229672 2 4 cbr 210 ------- 0 0.0 5.0 60 60
+ 1.229672 4 5 cbr 210 ------- 0 0.0 5.0 60 60
- 1.229672 4 5 cbr 210 ------- 0 0.0 5.0 60 60
r 1.231086 0 2 cbr 210 ------- 0 0.0 5.0 61 61
+ 1.231086 2 4 cbr 210 ------- 0 0.0 5.0 61 61
- 1.231086 2 4 cbr 210 ------- 0 0.0 5.0 61 61
r 1.232008 4 5 cbr 210 ------- 0 0.0 5.0 60 60
+ 1.2325 0 2 cbr 210 ------- 0 0.0 5.0 62 62
- 1.2325 0 2 cbr 210 ------- 0 0.0 5.0 62 62
r 1.233422 2 4 cbr 210 ------- 0 0.0 5.0 61 61
+ 1.233422 4 5 cbr 210 ------- 0 0.0 5.0 61 61
- 1.233422 4 5 cbr 210 ------- 0 0.0 5.0 61 61
r 1.234836 0 2 cbr 210 ------- 0 0.0 5.0 62 62
+ 1.234836 2 4 cbr 210 ------- 0 0.0 5.0 62 62
- 1.234836 2 4 cbr 210 ------- 0 0.0 5.0 62 62
r 1.235758 4 5 cbr 210 ------- 0 0.0 5.0 61 61
+ 1.23625 0 2 cbr 210 ------- 0 0.0 5.0 63 63
- 1.23625 0 2 cbr 210 ------- 0 0.0 5.0 63 63
r 1.237172 2 4 cbr 210 ------- 0 0.0 5.0 62 62
+ 1.237172 4 5 cbr 210 ------- 0 0.0 5.0 62 62
- 1.237172 4 5 cbr 210 ------- 0 0.0 5.0 62 62
r 1.238586 0 2 cbr 210 ------- 0 0.0 5.0 63 63
+ 1.238586 2 4 cbr 210 ------- 0 0.0 5.0 63 63
- 1.238586 2 4 cbr 210 ------- 0 0.0 5.0 63 63
r 1.239508 4 5 cbr 210 ------- 0 0.0 5.0 62 62
+ 1.24 0 2 cbr 210 ------- 0 0.0 5.0 64 64
- 1.24 0 2 cbr 210 ------- 0 0.0 5.0 64 64
r 1.240922 2 4 cbr 210 ------- 0 0.0 5.0 63 63
+ 1.240922 4 5 cbr 210 ------- 0 0.0 5.0 63 63
- 1.240922 4 5 cbr 210 ------- 0 0.0 5.0 63 63
r 1.242336 0 2 cbr 210 ------- 0 0.0 5.0 64 64
+ 1.242336 2 4 cbr 210 ------- 0 0.0 5.0 64 64
- 1.242336 2 4 cbr 210 ------- 0 0.0 5.0 64 64
r 1.243258 4 5 cbr 210 ------- 0 0.0 5.0 63 63
+ 1.24375 0 2 cbr 210 ------- 0 0.0 5.0 65 65
- 1.24375 0 2 cbr 210 ------- 0 0.0 5.0 65 65
r 1.244672 2 4 cbr 210 ------- 0 0.0 5.0 64 64
+ 1.244672 4 5 cbr 210 ------- 0 0.0 5.0 64 64
- 1.244672 4 5 cbr 210 ------- 0 0.0 5.0 64 64
r 1.246086 0 2 cbr 210 ------- 0 0.0 5.0 65 65
+ 1.246086 2 4 cbr 210 ------- 0 0.0 5.0 65 65
- 1.246086 2 4 cbr 210 ------- 0 0.0 5.0 65 65
r 1.247008 4 5 cbr 210 ------- 0 0.0 5.0 64 64
+ 1.2475 0 2 cbr 210 ------- 0 0.0 5.0 66 66
- 1.2475 0 2 cbr 210 ------- 0 0.0 5.0 66 66
r 1.248422 2 4 cbr 210 ------- 0 0.0 5.0 65 65
+ 1.248422 4 5 cbr 210 ------- 0 0.0 5.0 65 65
- 1.248422 4 5 cbr 210 ------- 0 0.0 5.0 65 65
r 1.249836 0 2 cbr 210 ------- 0 0.0 5.0 66 66
+ 1.249836 2 4 cbr 210 ------- 0 0.0 5.0 66 66
- 1.249836 2 4 cbr 210 ------- 0 0.0 5.0 66 66
r 1.250758 4 5 cbr 210 ------- 0 0.0 5.0 65 65
+ 1.25125 0 2 cbr 210 ------- 0 0.0 5.0 67 67
- 1.25125 0 2 cbr 210 ------- 0 0.0 5.0 67 67
r 1.252172 2 4 cbr 210 ------- 0 0.0 5.0 66 66
+ 1.252172 4 5 cbr 210 ------- 0 0.0 5.0 66 66
- 1.252172 4 5 cbr 210 ------- 0 0.0 5.0 66 66
r 1.253586 0 2 cbr 210 ------- 0 0.0 5.0 67 67
+ 1.253586 2 4 cbr 210 ------- 0 0.0 5.0 67 67
- 1.253586 2 4 cbr 210 ------- 0 0.0 5.0 67 67
r 1.254508 4 5 cbr 210 ------- 0 0.0 5.0 66 66
+ 1.255 0 2 cbr 210 ------- 0 0.0 5.0 68 68
- 1.255 0 2 cbr 210 ------- 0 0.0 5.0 68 68
r 1.255922 2 4 cbr 210 ------- 0 0.0 5.0 67 67
+ 1.255922 4 5 cbr 210 ------- 0 0.0 5.0 67 67
- 1.255922 4 5 cbr 210 ------- 0 0.0 5.0 67 67
r 1.257336 0 2 cbr 210 ------- 0 0.0 5.0 68 68
+ 1.257336 2 4 cbr 210 ------- 0 0.0 5.0 68 68
- 1.257336 2 4 cbr 210 ------- 0 0.0 5.0 68 68
r 1.258258 4 5 cbr 210 ------- 0 0.0 5.0 67 67
+ 1.25875 0 2 cbr 210 ------- 0 0.0 5.0 69 69
- 1.25875 0 2 cbr 210 ------- 0 0.0 5.0 69 69
r 1.259672 2 4 cbr 210 ------- 0 0.0 5.0 68 68
+ 1.259672 4 5 cbr 210 ------- 0 0.0 5.0 68 68
- 1.259672 4 5 cbr 210 ------- 0 0.0 5.0 68 68
r 1.261086 0 2 cbr 210 ------- 0 0.0 5.0 69 69
+ 1.261086 2 4 cbr 210 ------- 0 0.0 5.0 69 69
- 1.261086 2 4 cbr 210 ------- 0 0.0 5.0 69 69
r 1.262008 4 5 cbr 210 ------- 0 0.0 5.0 68 68
+ 1.2625 0 2 cbr 210 ------- 0 0.0 5.0 70 70
- 1.2625 0 2 cbr 210 ------- 0 0.0 5.0 70 70
r 1.263422 2 4 cbr 210 ------- 0 0.0 5.0 69 69
+ 1.263422 4 5 cbr 210 ------- 0 0.0 5.0 69 69
- 1.263422 4 5 cbr 210 ------- 0 0.0 5.0 69 69
r 1.264836 0 2 cbr 210 ------- 0 0.0 5.0 70 70
+ 1.264836 2 4 cbr 210 ------- 0 0.0 5.0 70 70
- 1.264836 2 4 cbr 210 ------- 0 0.0 5.0 70 70
r 1.265758 4 5 cbr 210 ------- 0 0.0 5.0 69 69
+ 1.26625 0 2 cbr 210 ------- 0 0.0 5.0 71 71
- 1.26625 0 2 cbr 210 ------- 0 0.0 5.0 71 71
r 1.267172 2 4 cbr 210 ------- 0 0.0 5.0 70 70
+ 1.267172 4 5 cbr 210 ------- 0 0.0 5.0 70 70
- 1.267172 4 5 cbr 210 ------- 0 0.0 5.0 70 70
r 1.268586 0 2 cbr 210 ------- 0 0.0 5.0 71 71
+ 1.268586 2 4 cbr 210 ------- 0 0.0 5.0 71 71
- 1.268586 2 4 cbr 210 ------- 0 0.0 5.0 71 71
r 1.269508 4 5 cbr 210 ------- 0 0.0 5.0 70 70
+ 1.27 0 2 cbr 210 ------- 0 0.0 5.0 72 72
- 1.27 0 2 cbr 210 ------- 0 0.0 5.0 72 72
r 1.270922 2 4 cbr 210 ------- 0 0.0 5.0 71 71
+ 1.270922 4 5 cbr 210 ------- 0 0.0 5.0 71 71